 TITLE = "result"
 VARIABLES = "X", "Y", "U", "V", "P"
 ZONE I=         101 J=         101 F=POINT
 0.00000000E+00      0.00000000E+00      0.00000000E+00      0.00000000E+00      0.10163642E+01
 0.99999998E-02      0.00000000E+00      0.00000000E+00      0.00000000E+00      0.10163655E+01
 0.20000000E-01      0.00000000E+00      0.00000000E+00      0.00000000E+00      0.10163507E+01
 0.29999999E-01      0.00000000E+00      0.00000000E+00      0.00000000E+00      0.10162997E+01
 0.39999999E-01      0.00000000E+00      0.00000000E+00      0.00000000E+00      0.10162131E+01
 0.49999999E-01      0.00000000E+00      0.00000000E+00      0.00000000E+00      0.10160964E+01
 0.59999999E-01      0.00000000E+00      0.00000000E+00      0.00000000E+00      0.10159563E+01
 0.69999998E-01      0.00000000E+00      0.00000000E+00      0.00000000E+00      0.10157990E+01
 0.79999998E-01      0.00000000E+00      0.00000000E+00      0.00000000E+00      0.10156306E+01
 0.89999998E-01      0.00000000E+00      0.00000000E+00      0.00000000E+00      0.10154560E+01
 0.99999998E-01      0.00000000E+00      0.00000000E+00      0.00000000E+00      0.10152796E+01
 0.11000000E+00      0.00000000E+00      0.00000000E+00      0.00000000E+00      0.10151049E+01
 0.12000000E+00      0.00000000E+00      0.00000000E+00      0.00000000E+00      0.10149350E+01
 0.13000000E+00      0.00000000E+00      0.00000000E+00      0.00000000E+00      0.10147723E+01
 0.14000000E+00      0.00000000E+00      0.00000000E+00      0.00000000E+00      0.10146188E+01
 0.15000000E+00      0.00000000E+00      0.00000000E+00      0.00000000E+00      0.10144763E+01
 0.16000000E+00      0.00000000E+00      0.00000000E+00      0.00000000E+00      0.10143460E+01
 0.17000000E+00      0.00000000E+00      0.00000000E+00      0.00000000E+00      0.10142289E+01
 0.18000000E+00      0.00000000E+00      0.00000000E+00      0.00000000E+00      0.10141259E+01
 0.19000000E+00      0.00000000E+00      0.00000000E+00      0.00000000E+00      0.10140377E+01
 0.20000000E+00      0.00000000E+00      0.00000000E+00      0.00000000E+00      0.10139646E+01
 0.21000000E+00      0.00000000E+00      0.00000000E+00      0.00000000E+00      0.10139072E+01
 0.22000000E+00      0.00000000E+00      0.00000000E+00      0.00000000E+00      0.10138657E+01
 0.22999999E+00      0.00000000E+00      0.00000000E+00      0.00000000E+00      0.10138402E+01
 0.23999999E+00      0.00000000E+00      0.00000000E+00      0.00000000E+00      0.10138309E+01
 0.24999999E+00      0.00000000E+00      0.00000000E+00      0.00000000E+00      0.10138380E+01
 0.25999999E+00      0.00000000E+00      0.00000000E+00      0.00000000E+00      0.10138615E+01
 0.26999999E+00      0.00000000E+00      0.00000000E+00      0.00000000E+00      0.10139015E+01
 0.27999999E+00      0.00000000E+00      0.00000000E+00      0.00000000E+00      0.10139579E+01
 0.28999999E+00      0.00000000E+00      0.00000000E+00      0.00000000E+00      0.10140309E+01
 0.29999999E+00      0.00000000E+00      0.00000000E+00      0.00000000E+00      0.10141203E+01
 0.30999999E+00      0.00000000E+00      0.00000000E+00      0.00000000E+00      0.10142261E+01
 0.31999999E+00      0.00000000E+00      0.00000000E+00      0.00000000E+00      0.10143483E+01
 0.32999999E+00      0.00000000E+00      0.00000000E+00      0.00000000E+00      0.10144868E+01
 0.33999999E+00      0.00000000E+00      0.00000000E+00      0.00000000E+00      0.10146415E+01
 0.34999999E+00      0.00000000E+00      0.00000000E+00      0.00000000E+00      0.10148121E+01
 0.35999999E+00      0.00000000E+00      0.00000000E+00      0.00000000E+00      0.10149986E+01
 0.36999999E+00      0.00000000E+00      0.00000000E+00      0.00000000E+00      0.10152007E+01
 0.37999999E+00      0.00000000E+00      0.00000000E+00      0.00000000E+00      0.10154179E+01
 0.38999999E+00      0.00000000E+00      0.00000000E+00      0.00000000E+00      0.10156500E+01
 0.39999999E+00      0.00000000E+00      0.00000000E+00      0.00000000E+00      0.10158965E+01
 0.40999999E+00      0.00000000E+00      0.00000000E+00      0.00000000E+00      0.10161568E+01
 0.41999999E+00      0.00000000E+00      0.00000000E+00      0.00000000E+00      0.10164304E+01
 0.42999999E+00      0.00000000E+00      0.00000000E+00      0.00000000E+00      0.10167164E+01
 0.43999999E+00      0.00000000E+00      0.00000000E+00      0.00000000E+00      0.10170142E+01
 0.44999999E+00      0.00000000E+00      0.00000000E+00      0.00000000E+00      0.10173227E+01
 0.45999999E+00      0.00000000E+00      0.00000000E+00      0.00000000E+00      0.10176410E+01
 0.46999999E+00      0.00000000E+00      0.00000000E+00      0.00000000E+00      0.10179679E+01
 0.47999999E+00      0.00000000E+00      0.00000000E+00      0.00000000E+00      0.10183022E+01
 0.48999999E+00      0.00000000E+00      0.00000000E+00      0.00000000E+00      0.10186426E+01
 0.49999999E+00      0.00000000E+00      0.00000000E+00      0.00000000E+00      0.10189877E+01
 0.50999999E+00      0.00000000E+00      0.00000000E+00      0.00000000E+00      0.10193360E+01
 0.51999999E+00      0.00000000E+00      0.00000000E+00      0.00000000E+00      0.10196858E+01
 0.52999999E+00      0.00000000E+00      0.00000000E+00      0.00000000E+00      0.10200355E+01
 0.53999999E+00      0.00000000E+00      0.00000000E+00      0.00000000E+00      0.10203834E+01
 0.54999999E+00      0.00000000E+00      0.00000000E+00      0.00000000E+00      0.10207275E+01
 0.55999999E+00      0.00000000E+00      0.00000000E+00      0.00000000E+00      0.10210662E+01
 0.56999999E+00      0.00000000E+00      0.00000000E+00      0.00000000E+00      0.10213975E+01
 0.57999999E+00      0.00000000E+00      0.00000000E+00      0.00000000E+00      0.10217195E+01
 0.58999999E+00      0.00000000E+00      0.00000000E+00      0.00000000E+00      0.10220304E+01
 0.59999999E+00      0.00000000E+00      0.00000000E+00      0.00000000E+00      0.10223282E+01
 0.60999999E+00      0.00000000E+00      0.00000000E+00      0.00000000E+00      0.10226111E+01
 0.61999999E+00      0.00000000E+00      0.00000000E+00      0.00000000E+00      0.10228775E+01
 0.62999999E+00      0.00000000E+00      0.00000000E+00      0.00000000E+00      0.10231255E+01
 0.63999999E+00      0.00000000E+00      0.00000000E+00      0.00000000E+00      0.10233535E+01
 0.64999999E+00      0.00000000E+00      0.00000000E+00      0.00000000E+00      0.10235602E+01
 0.65999999E+00      0.00000000E+00      0.00000000E+00      0.00000000E+00      0.10237442E+01
 0.66999999E+00      0.00000000E+00      0.00000000E+00      0.00000000E+00      0.10239043E+01
 0.67999998E+00      0.00000000E+00      0.00000000E+00      0.00000000E+00      0.10240394E+01
 0.68999998E+00      0.00000000E+00      0.00000000E+00      0.00000000E+00      0.10241489E+01
 0.69999998E+00      0.00000000E+00      0.00000000E+00      0.00000000E+00      0.10242319E+01
 0.70999998E+00      0.00000000E+00      0.00000000E+00      0.00000000E+00      0.10242883E+01
 0.71999998E+00      0.00000000E+00      0.00000000E+00      0.00000000E+00      0.10243177E+01
 0.72999998E+00      0.00000000E+00      0.00000000E+00      0.00000000E+00      0.10243202E+01
 0.73999998E+00      0.00000000E+00      0.00000000E+00      0.00000000E+00      0.10242963E+01
 0.74999998E+00      0.00000000E+00      0.00000000E+00      0.00000000E+00      0.10242464E+01
 0.75999998E+00      0.00000000E+00      0.00000000E+00      0.00000000E+00      0.10241713E+01
 0.76999998E+00      0.00000000E+00      0.00000000E+00      0.00000000E+00      0.10240721E+01
 0.77999998E+00      0.00000000E+00      0.00000000E+00      0.00000000E+00      0.10239502E+01
 0.78999998E+00      0.00000000E+00      0.00000000E+00      0.00000000E+00      0.10238070E+01
 0.79999998E+00      0.00000000E+00      0.00000000E+00      0.00000000E+00      0.10236443E+01
 0.80999998E+00      0.00000000E+00      0.00000000E+00      0.00000000E+00      0.10234643E+01
 0.81999998E+00      0.00000000E+00      0.00000000E+00      0.00000000E+00      0.10232691E+01
 0.82999998E+00      0.00000000E+00      0.00000000E+00      0.00000000E+00      0.10230611E+01
 0.83999998E+00      0.00000000E+00      0.00000000E+00      0.00000000E+00      0.10228431E+01
 0.84999998E+00      0.00000000E+00      0.00000000E+00      0.00000000E+00      0.10226179E+01
 0.85999998E+00      0.00000000E+00      0.00000000E+00      0.00000000E+00      0.10223885E+01
 0.86999998E+00      0.00000000E+00      0.00000000E+00      0.00000000E+00      0.10221580E+01
 0.87999998E+00      0.00000000E+00      0.00000000E+00      0.00000000E+00      0.10219300E+01
 0.88999998E+00      0.00000000E+00      0.00000000E+00      0.00000000E+00      0.10217079E+01
 0.89999998E+00      0.00000000E+00      0.00000000E+00      0.00000000E+00      0.10214953E+01
 0.90999998E+00      0.00000000E+00      0.00000000E+00      0.00000000E+00      0.10212961E+01
 0.91999998E+00      0.00000000E+00      0.00000000E+00      0.00000000E+00      0.10211140E+01
 0.92999998E+00      0.00000000E+00      0.00000000E+00      0.00000000E+00      0.10209531E+01
 0.93999998E+00      0.00000000E+00      0.00000000E+00      0.00000000E+00      0.10208173E+01
 0.94999998E+00      0.00000000E+00      0.00000000E+00      0.00000000E+00      0.10207100E+01
 0.95999998E+00      0.00000000E+00      0.00000000E+00      0.00000000E+00      0.10206342E+01
 0.96999998E+00      0.00000000E+00      0.00000000E+00      0.00000000E+00      0.10205914E+01
 0.97999998E+00      0.00000000E+00      0.00000000E+00      0.00000000E+00      0.10205796E+01
 0.98999998E+00      0.00000000E+00      0.00000000E+00      0.00000000E+00      0.10205904E+01
 0.99999998E+00      0.00000000E+00      0.00000000E+00      0.00000000E+00      0.10205999E+01
 0.00000000E+00      0.99999998E-02      0.00000000E+00      0.00000000E+00      0.10163620E+01
 0.99999998E-02      0.99999998E-02      0.14561473E-04     -0.13387634E-04      0.10163634E+01
 0.20000000E-01      0.99999998E-02      0.40591424E-04     -0.18799132E-04      0.10163491E+01
 0.29999999E-01      0.99999998E-02      0.64975155E-04     -0.16261777E-04      0.10163003E+01
 0.39999999E-01      0.99999998E-02      0.78627435E-04     -0.87028939E-05      0.10162186E+01
 0.49999999E-01      0.99999998E-02      0.75889840E-04      0.15801074E-05      0.10161089E+01
 0.59999999E-01      0.99999998E-02      0.53589241E-04      0.13128806E-04      0.10159770E+01
 0.69999998E-01      0.99999998E-02      0.10247563E-04      0.25059378E-04      0.10158288E+01
 0.79999998E-01      0.99999998E-02     -0.54485431E-04      0.36838744E-04      0.10156696E+01
 0.89999998E-01      0.99999998E-02     -0.14021899E-03      0.48145418E-04      0.10155042E+01
 0.99999998E-01      0.99999998E-02     -0.24608240E-03      0.58788544E-04      0.10153366E+01
 0.11000000E+00      0.99999998E-02     -0.37090212E-03      0.68660173E-04      0.10151703E+01
 0.12000000E+00      0.99999998E-02     -0.51332312E-03      0.77706209E-04      0.10150082E+01
 0.13000000E+00      0.99999998E-02     -0.67189285E-03      0.85908267E-04      0.10148527E+01
 0.14000000E+00      0.99999998E-02     -0.84511945E-03      0.93271736E-04      0.10147058E+01
 0.15000000E+00      0.99999998E-02     -0.10315121E-02      0.99817656E-04      0.10145691E+01
 0.16000000E+00      0.99999998E-02     -0.12296084E-02      0.10557702E-03      0.10144441E+01
 0.17000000E+00      0.99999998E-02     -0.14379922E-02      0.11058670E-03      0.10143316E+01
 0.18000000E+00      0.99999998E-02     -0.16553052E-02      0.11488643E-03      0.10142326E+01
 0.19000000E+00      0.99999998E-02     -0.18802519E-02      0.11851663E-03      0.10141478E+01
 0.20000000E+00      0.99999998E-02     -0.21116022E-02      0.12151680E-03      0.10140776E+01
 0.21000000E+00      0.99999998E-02     -0.23481904E-02      0.12392433E-03      0.10140224E+01
 0.22000000E+00      0.99999998E-02     -0.25889117E-02      0.12577368E-03      0.10139826E+01
 0.22999999E+00      0.99999998E-02     -0.28327179E-02      0.12709585E-03      0.10139584E+01
 0.23999999E+00      0.99999998E-02     -0.30786117E-02      0.12791798E-03      0.10139499E+01
 0.24999999E+00      0.99999998E-02     -0.33256403E-02      0.12826327E-03      0.10139574E+01
 0.25999999E+00      0.99999998E-02     -0.35728893E-02      0.12815095E-03      0.10139808E+01
 0.26999999E+00      0.99999998E-02     -0.38194754E-02      0.12759638E-03      0.10140202E+01
 0.27999999E+00      0.99999998E-02     -0.40645405E-02      0.12661128E-03      0.10140756E+01
 0.28999999E+00      0.99999998E-02     -0.43072459E-02      0.12520403E-03      0.10141472E+01
 0.29999999E+00      0.99999998E-02     -0.45467663E-02      0.12338003E-03      0.10142348E+01
 0.30999999E+00      0.99999998E-02     -0.47822855E-02      0.12114211E-03      0.10143384E+01
 0.31999999E+00      0.99999998E-02     -0.50129920E-02      0.11849099E-03      0.10144580E+01
 0.32999999E+00      0.99999998E-02     -0.52380760E-02      0.11542574E-03      0.10145936E+01
 0.33999999E+00      0.99999998E-02     -0.54567273E-02      0.11194430E-03      0.10147449E+01
 0.34999999E+00      0.99999998E-02     -0.56681332E-02      0.10804399E-03      0.10149118E+01
 0.35999999E+00      0.99999998E-02     -0.58714785E-02      0.10372199E-03      0.10150941E+01
 0.36999999E+00      0.99999998E-02     -0.60659460E-02      0.98975904E-04      0.10152915E+01
 0.37999999E+00      0.99999998E-02     -0.62507173E-02      0.93804187E-04      0.10155038E+01
 0.38999999E+00      0.99999998E-02     -0.64249754E-02      0.88206674E-04      0.10157306E+01
 0.39999999E+00      0.99999998E-02     -0.65879078E-02      0.82185022E-04      0.10159713E+01
 0.40999999E+00      0.99999998E-02     -0.67387100E-02      0.75743144E-04      0.10162256E+01
 0.41999999E+00      0.99999998E-02     -0.68765906E-02      0.68887616E-04      0.10164927E+01
 0.42999999E+00      0.99999998E-02     -0.70007763E-02      0.61628045E-04      0.10167719E+01
 0.43999999E+00      0.99999998E-02     -0.71105179E-02      0.53977408E-04      0.10170624E+01
 0.44999999E+00      0.99999998E-02     -0.72050970E-02      0.45952346E-04      0.10173635E+01
 0.45999999E+00      0.99999998E-02     -0.72838330E-02      0.37573438E-04      0.10176739E+01
 0.46999999E+00      0.99999998E-02     -0.73460901E-02      0.28865458E-04      0.10179928E+01
 0.47999999E+00      0.99999998E-02     -0.73912858E-02      0.19857643E-04      0.10183188E+01
 0.48999999E+00      0.99999998E-02     -0.74188981E-02      0.10583979E-04      0.10186506E+01
 0.49999999E+00      0.99999998E-02     -0.74284737E-02      0.10829923E-05      0.10189870E+01
 0.50999999E+00      0.99999998E-02     -0.74196353E-02     -0.86064263E-05      0.10193264E+01
 0.51999999E+00      0.99999998E-02     -0.73920875E-02     -0.18441747E-04      0.10196673E+01
 0.52999999E+00      0.99999998E-02     -0.73456257E-02     -0.28372545E-04      0.10200079E+01
 0.53999999E+00      0.99999998E-02     -0.72801437E-02     -0.38344307E-04      0.10203467E+01
 0.54999999E+00      0.99999998E-02     -0.71956406E-02     -0.48299493E-04      0.10206819E+01
 0.55999999E+00      0.99999998E-02     -0.70922262E-02     -0.58177760E-04      0.10210117E+01
 0.56999999E+00      0.99999998E-02     -0.69701263E-02     -0.67916262E-04      0.10213342E+01
 0.57999999E+00      0.99999998E-02     -0.68296865E-02     -0.77450078E-04      0.10216476E+01
 0.58999999E+00      0.99999998E-02     -0.66713759E-02     -0.86712740E-04      0.10219502E+01
 0.59999999E+00      0.99999998E-02     -0.64957884E-02     -0.95636836E-04      0.10222400E+01
 0.60999999E+00      0.99999998E-02     -0.63036443E-02     -0.10415467E-03      0.10225153E+01
 0.61999999E+00      0.99999998E-02     -0.60957898E-02     -0.11219896E-03      0.10227745E+01
 0.62999999E+00      0.99999998E-02     -0.58731950E-02     -0.11970359E-03      0.10230158E+01
 0.63999999E+00      0.99999998E-02     -0.56369512E-02     -0.12660434E-03      0.10232377E+01
 0.64999999E+00      0.99999998E-02     -0.53882664E-02     -0.13283967E-03      0.10234389E+01
 0.65999999E+00      0.99999998E-02     -0.51284593E-02     -0.13835150E-03      0.10236180E+01
 0.66999999E+00      0.99999998E-02     -0.48589522E-02     -0.14308597E-03      0.10237738E+01
 0.67999998E+00      0.99999998E-02     -0.45812624E-02     -0.14699414E-03      0.10239055E+01
 0.68999998E+00      0.99999998E-02     -0.42969923E-02     -0.15003271E-03      0.10240122E+01
 0.69999998E+00      0.99999998E-02     -0.40078180E-02     -0.15216467E-03      0.10240934E+01
 0.70999998E+00      0.99999998E-02     -0.37154774E-02     -0.15335988E-03      0.10241486E+01
 0.71999998E+00      0.99999998E-02     -0.34217567E-02     -0.15359559E-03      0.10241778E+01
 0.72999998E+00      0.99999998E-02     -0.31284760E-02     -0.15285688E-03      0.10241810E+01
 0.73999998E+00      0.99999998E-02     -0.28374748E-02     -0.15113699E-03      0.10241585E+01
 0.74999998E+00      0.99999998E-02     -0.25505962E-02     -0.14843766E-03      0.10241109E+01
 0.75999998E+00      0.99999998E-02     -0.22696706E-02     -0.14476924E-03      0.10240389E+01
 0.76999998E+00      0.99999998E-02     -0.19964998E-02     -0.14015083E-03      0.10239438E+01
 0.77999998E+00      0.99999998E-02     -0.17328404E-02     -0.13461030E-03      0.10238266E+01
 0.78999998E+00      0.99999998E-02     -0.14803867E-02     -0.12818427E-03      0.10236890E+01
 0.79999998E+00      0.99999998E-02     -0.12407548E-02     -0.12091806E-03      0.10235326E+01
 0.80999998E+00      0.99999998E-02     -0.10154654E-02     -0.11286560E-03      0.10233595E+01
 0.81999998E+00      0.99999998E-02     -0.80592738E-03     -0.10408940E-03      0.10231719E+01
 0.82999998E+00      0.99999998E-02     -0.61342107E-03     -0.94660667E-04      0.10229720E+01
 0.83999998E+00      0.99999998E-02     -0.43908092E-03     -0.84659478E-04      0.10227626E+01
 0.84999998E+00      0.99999998E-02     -0.28387756E-03     -0.74175342E-04      0.10225464E+01
 0.85999998E+00      0.99999998E-02     -0.14859838E-03     -0.63308069E-04      0.10223262E+01
 0.86999998E+00      0.99999998E-02     -0.33825870E-04     -0.52169281E-04      0.10221053E+01
 0.87999998E+00      0.99999998E-02      0.60087689E-04     -0.40885368E-04      0.10218868E+01
 0.88999998E+00      0.99999998E-02      0.13305110E-03     -0.29601172E-04      0.10216741E+01
 0.89999998E+00      0.99999998E-02      0.18527286E-03     -0.18485585E-04      0.10214708E+01
 0.90999998E+00      0.99999998E-02      0.21731151E-03     -0.77411256E-05      0.10212804E+01
 0.91999998E+00      0.99999998E-02      0.23014309E-03      0.23818061E-05      0.10211065E+01
 0.92999998E+00      0.99999998E-02      0.22525276E-03      0.11562947E-04      0.10209529E+01
 0.93999998E+00      0.99999998E-02      0.20476051E-03      0.19377656E-04      0.10208230E+01
 0.94999998E+00      0.99999998E-02      0.17159231E-03      0.25244676E-04      0.10207202E+01
 0.95999998E+00      0.99999998E-02      0.12970461E-03      0.28355268E-04      0.10206468E+01
 0.96999998E+00      0.99999998E-02      0.84347770E-04      0.27614281E-04      0.10206042E+01
 0.97999998E+00      0.99999998E-02      0.42273377E-04      0.21774441E-04      0.10205907E+01
 0.98999998E+00      0.99999998E-02      0.11547575E-04      0.10563265E-04      0.10206005E+01
 0.99999998E+00      0.99999998E-02      0.00000000E+00      0.00000000E+00      0.10206101E+01
 0.00000000E+00      0.20000000E-01      0.00000000E+00      0.00000000E+00      0.10163753E+01
 0.99999998E-02      0.20000000E-01      0.20448772E-04     -0.38857801E-04      0.10163765E+01
 0.20000000E-01      0.20000000E-01      0.51450066E-04     -0.48670742E-04      0.10163624E+01
 0.29999999E-01      0.20000000E-01      0.74447126E-04     -0.36285334E-04      0.10163166E+01
 0.39999999E-01      0.20000000E-01      0.76519416E-04     -0.91584599E-05      0.10162425E+01
 0.49999999E-01      0.20000000E-01      0.49046345E-04      0.26797618E-04      0.10161442E+01
 0.59999999E-01      0.20000000E-01     -0.13237786E-04      0.67402511E-04      0.10160263E+01
 0.69999998E-01      0.20000000E-01     -0.11307746E-03      0.10983334E-03      0.10158937E+01
 0.79999998E-01      0.20000000E-01     -0.25138586E-03      0.15222130E-03      0.10157509E+01
 0.89999998E-01      0.20000000E-01     -0.42777980E-03      0.19334551E-03      0.10156018E+01
 0.99999998E-01      0.20000000E-01     -0.64097935E-03      0.23242323E-03      0.10154502E+01
 0.11000000E+00      0.20000000E-01     -0.88910086E-03      0.26897026E-03      0.10152993E+01
 0.12000000E+00      0.20000000E-01     -0.11698707E-02      0.30270763E-03      0.10151516E+01
 0.13000000E+00      0.20000000E-01     -0.14807803E-02      0.33349863E-03      0.10150095E+01
 0.14000000E+00      0.20000000E-01     -0.18191984E-02      0.36130506E-03      0.10148749E+01
 0.15000000E+00      0.20000000E-01     -0.21824516E-02      0.38615645E-03      0.10147493E+01
 0.16000000E+00      0.20000000E-01     -0.25678810E-02      0.40812770E-03      0.10146342E+01
 0.17000000E+00      0.20000000E-01     -0.29728821E-02      0.42732276E-03      0.10145305E+01
 0.18000000E+00      0.20000000E-01     -0.33949297E-02      0.44386240E-03      0.10144391E+01
 0.19000000E+00      0.20000000E-01     -0.38315941E-02      0.45787517E-03      0.10143608E+01
 0.20000000E+00      0.20000000E-01     -0.42805483E-02      0.46949057E-03      0.10142960E+01
 0.21000000E+00      0.20000000E-01     -0.47395700E-02      0.47883404E-03      0.10142453E+01
 0.22000000E+00      0.20000000E-01     -0.52065391E-02      0.48602328E-03      0.10142088E+01
 0.22999999E+00      0.20000000E-01     -0.56794313E-02      0.49116575E-03      0.10141871E+01
 0.23999999E+00      0.20000000E-01     -0.61563103E-02      0.49435697E-03      0.10141801E+01
 0.24999999E+00      0.20000000E-01     -0.66353180E-02      0.49567969E-03      0.10141881E+01
 0.25999999E+00      0.20000000E-01     -0.71146640E-02      0.49520348E-03      0.10142112E+01
 0.26999999E+00      0.20000000E-01     -0.75926150E-02      0.49298500E-03      0.10142495E+01
 0.27999999E+00      0.20000000E-01     -0.80674838E-02      0.48906853E-03      0.10143030E+01
 0.28999999E+00      0.20000000E-01     -0.85376199E-02      0.48348694E-03      0.10143718E+01
 0.29999999E+00      0.20000000E-01     -0.90013997E-02      0.47626288E-03      0.10144558E+01
 0.30999999E+00      0.20000000E-01     -0.94572188E-02      0.46741016E-03      0.10145551E+01
 0.31999999E+00      0.20000000E-01     -0.99034848E-02      0.45693535E-03      0.10146696E+01
 0.32999999E+00      0.20000000E-01     -0.10338612E-01      0.44483949E-03      0.10147992E+01
 0.33999999E+00      0.20000000E-01     -0.10761019E-01      0.43111981E-03      0.10149438E+01
 0.34999999E+00      0.20000000E-01     -0.11169124E-01      0.41577161E-03      0.10151033E+01
 0.35999999E+00      0.20000000E-01     -0.11561344E-01      0.39879008E-03      0.10152774E+01
 0.36999999E+00      0.20000000E-01     -0.11936101E-01      0.38017213E-03      0.10154659E+01
 0.37999999E+00      0.20000000E-01     -0.12291819E-01      0.35991821E-03      0.10156684E+01
 0.38999999E+00      0.20000000E-01     -0.12626929E-01      0.33803401E-03      0.10158847E+01
 0.39999999E+00      0.20000000E-01     -0.12939877E-01      0.31453219E-03      0.10161143E+01
 0.40999999E+00      0.20000000E-01     -0.13229134E-01      0.28943389E-03      0.10163566E+01
 0.41999999E+00      0.20000000E-01     -0.13493196E-01      0.26277023E-03      0.10166111E+01
 0.42999999E+00      0.20000000E-01     -0.13730602E-01      0.23458362E-03      0.10168771E+01
 0.43999999E+00      0.20000000E-01     -0.13939943E-01      0.20492898E-03      0.10171537E+01
 0.44999999E+00      0.20000000E-01     -0.14119872E-01      0.17387477E-03      0.10174402E+01
 0.45999999E+00      0.20000000E-01     -0.14269119E-01      0.14150387E-03      0.10177357E+01
 0.46999999E+00      0.20000000E-01     -0.14386504E-01      0.10791432E-03      0.10180389E+01
 0.47999999E+00      0.20000000E-01     -0.14470950E-01      0.73219797E-04      0.10183489E+01
 0.48999999E+00      0.20000000E-01     -0.14521501E-01      0.37549827E-04      0.10186644E+01
 0.49999999E+00      0.20000000E-01     -0.14537329E-01      0.10491030E-05      0.10189840E+01
 0.50999999E+00      0.20000000E-01     -0.14517755E-01     -0.36124509E-04      0.10193064E+01
 0.51999999E+00      0.20000000E-01     -0.14462261E-01     -0.73798343E-04      0.10196301E+01
 0.52999999E+00      0.20000000E-01     -0.14370504E-01     -0.11178303E-03      0.10199535E+01
 0.53999999E+00      0.20000000E-01     -0.14242326E-01     -0.14987486E-03      0.10202750E+01
 0.54999999E+00      0.20000000E-01     -0.14077769E-01     -0.18785777E-03      0.10205931E+01
 0.55999999E+00      0.20000000E-01     -0.13877082E-01     -0.22550500E-03      0.10209059E+01
 0.56999999E+00      0.20000000E-01     -0.13640732E-01     -0.26258065E-03      0.10212117E+01
 0.57999999E+00      0.20000000E-01     -0.13369412E-01     -0.29884152E-03      0.10215089E+01
 0.58999999E+00      0.20000000E-01     -0.13064044E-01     -0.33403917E-03      0.10217957E+01
 0.59999999E+00      0.20000000E-01     -0.12725786E-01     -0.36792217E-03      0.10220704E+01
 0.60999999E+00      0.20000000E-01     -0.12356029E-01     -0.40023851E-03      0.10223314E+01
 0.61999999E+00      0.20000000E-01     -0.11956399E-01     -0.43073819E-03      0.10225770E+01
 0.62999999E+00      0.20000000E-01     -0.11528752E-01     -0.45917595E-03      0.10228057E+01
 0.63999999E+00      0.20000000E-01     -0.11075170E-01     -0.48531398E-03      0.10230160E+01
 0.64999999E+00      0.20000000E-01     -0.10597948E-01     -0.50892478E-03      0.10232067E+01
 0.65999999E+00      0.20000000E-01     -0.10099588E-01     -0.52979391E-03      0.10233765E+01
 0.66999999E+00      0.20000000E-01     -0.95827830E-02     -0.54772281E-03      0.10235244E+01
 0.67999998E+00      0.20000000E-01     -0.90504005E-02     -0.56253142E-03      0.10236495E+01
 0.68999998E+00      0.20000000E-01     -0.85054645E-02     -0.57406076E-03      0.10237511E+01
 0.69999998E+00      0.20000000E-01     -0.79511347E-02     -0.58217525E-03      0.10238286E+01
 0.70999998E+00      0.20000000E-01     -0.73906836E-02     -0.58676492E-03      0.10238818E+01
 0.71999998E+00      0.20000000E-01     -0.68274718E-02     -0.58774731E-03      0.10239104E+01
 0.72999998E+00      0.20000000E-01     -0.62649212E-02     -0.58506911E-03      0.10239146E+01
 0.73999998E+00      0.20000000E-01     -0.57064877E-02     -0.57870754E-03      0.10238948E+01
 0.74999998E+00      0.20000000E-01     -0.51556317E-02     -0.56867141E-03      0.10238515E+01
 0.75999998E+00      0.20000000E-01     -0.46157882E-02     -0.55500190E-03      0.10237854E+01
 0.76999998E+00      0.20000000E-01     -0.40903363E-02     -0.53777310E-03      0.10236975E+01
 0.77999998E+00      0.20000000E-01     -0.35825678E-02     -0.51709224E-03      0.10235892E+01
 0.78999998E+00      0.20000000E-01     -0.30956558E-02     -0.49309981E-03      0.10234618E+01
 0.79999998E+00      0.20000000E-01     -0.26326233E-02     -0.46596953E-03      0.10233171E+01
 0.80999998E+00      0.20000000E-01     -0.21963108E-02     -0.43590840E-03      0.10231568E+01
 0.81999998E+00      0.20000000E-01     -0.17893449E-02     -0.40315688E-03      0.10229832E+01
 0.82999998E+00      0.20000000E-01     -0.14141051E-02     -0.36798941E-03      0.10227983E+01
 0.83999998E+00      0.20000000E-01     -0.10726905E-02     -0.33071565E-03      0.10226048E+01
 0.84999998E+00      0.20000000E-01     -0.76688499E-03     -0.29168265E-03      0.10224051E+01
 0.85999998E+00      0.20000000E-01     -0.49811887E-03     -0.25127855E-03      0.10222020E+01
 0.86999998E+00      0.20000000E-01     -0.26742730E-03     -0.20993849E-03      0.10219985E+01
 0.87999998E+00      0.20000000E-01     -0.75402088E-04     -0.16815377E-03      0.10217975E+01
 0.88999998E+00      0.20000000E-01      0.77864800E-04     -0.12648518E-03      0.10216021E+01
 0.89999998E+00      0.20000000E-01      0.19285085E-03     -0.85582516E-04      0.10214155E+01
 0.90999998E+00      0.20000000E-01      0.27068953E-03     -0.46213376E-04      0.10212410E+01
 0.91999998E+00      0.20000000E-01      0.31327997E-03     -0.93044658E-05      0.10210818E+01
 0.92999998E+00      0.20000000E-01      0.32342664E-03      0.24000130E-04      0.10209411E+01
 0.93999998E+00      0.20000000E-01      0.30501523E-03      0.52259412E-04      0.10208218E+01
 0.94999998E+00      0.20000000E-01      0.26322598E-03      0.73636608E-04      0.10207267E+01
 0.95999998E+00      0.20000000E-01      0.20477178E-03      0.85806855E-04      0.10206578E+01
 0.96999998E+00      0.20000000E-01      0.13811423E-03      0.85974326E-04      0.10206161E+01
 0.97999998E+00      0.20000000E-01      0.73552484E-04      0.71322401E-04      0.10206012E+01
 0.98999998E+00      0.20000000E-01      0.23047993E-04      0.40772643E-04      0.10206114E+01
 0.99999998E+00      0.20000000E-01      0.00000000E+00      0.00000000E+00      0.10206224E+01
 0.00000000E+00      0.29999999E-01      0.00000000E+00      0.00000000E+00      0.10164253E+01
 0.99999998E-02      0.29999999E-01      0.18179117E-04     -0.63098757E-04      0.10164244E+01
 0.20000000E-01      0.29999999E-01      0.39724308E-04     -0.71053219E-04      0.10164073E+01
 0.29999999E-01      0.29999999E-01      0.43986457E-04     -0.39581984E-04      0.10163614E+01
 0.39999999E-01      0.29999999E-01      0.16593904E-04      0.18450542E-04      0.10162906E+01
 0.49999999E-01      0.29999999E-01     -0.52286812E-04      0.93091681E-04      0.10161990E+01
 0.59999999E-01      0.29999999E-01     -0.16892394E-03      0.17700670E-03      0.10160904E+01
 0.69999998E-01      0.29999999E-01     -0.33677838E-03      0.26495917E-03      0.10159689E+01